BDEPEND=virtual/fortran
DEFINED_PHASES=compile install prepare setup
DEPEND=virtual/mpi[fortran] virtual/fortran
DESCRIPTION=a general purpose molecular dynamics simulation package
EAPI=7
HOMEPAGE=http://www.ccp5.ac.uk/DL_POLY_CLASSIC/
INHERIT=fortran-2 toolchain-funcs
IUSE=doc
KEYWORDS=~amd64
LICENSE=BSD
RDEPEND=virtual/mpi[fortran] virtual/fortran
SLOT=0
SRC_URI=https://gitlab.com/DL_POLY_Classic/dl_poly/-/archive/RELEASE-1-10/dl_poly-RELEASE-1-10.tar.gz -> dl_poly-1.10.tar.gz
_eclasses_=toolchain-funcs	14a8ae365191b518fad51caad7a08f3e	multilib	104e1332efb829e2f7cbf89307a474f1	fortran-2	40c4450f1c4ecb2ee694d96e1958d4ea
_md5_=b439ecdfdeb81c75368b574eb920db0a
