DEFINED_PHASES=compile install prepare setup
DEPEND=virtual/mpi[fortran] virtual/fortran
DESCRIPTION=a general purpose molecular dynamics simulation package
EAPI=7
HOMEPAGE=http://www.ccp5.ac.uk/DL_POLY_CLASSIC/
INHERIT=fortran-2 toolchain-funcs
IUSE=doc
KEYWORDS=~amd64
LICENSE=BSD
RDEPEND=virtual/mpi[fortran] virtual/fortran
SLOT=0
SRC_URI=https://gitlab.com/DL_POLY_Classic/dl_poly/-/archive/RELEASE-1-10/dl_poly-RELEASE-1-10.tar.gz -> dl_poly-1.10.tar.gz
_eclasses_=toolchain-funcs	e867df3870e8ff04a5b94f925be8b06a	multilib	f8d35c2432bb32c4f1e779c4287b31ec	fortran-2	3cec34b0def864e87677d8b2b1c370b8
_md5_=b439ecdfdeb81c75368b574eb920db0a
